! TOUCHSTONE file generated by CST MICROWAVE STUDIO
! Date and time: Tue Jun 18 18:26:25 2024
! Project name: Alumina CPW_TD.cst
! Parameters = {L=200; L1=40; L2=20; L3=60; N=0.75; S1=9; S2=22; W_s1=20; W_s2=60; eps_sub=9.9; h=500; h2=0; tg=0.2; w=500; w_g=200; w_p=78}
! Header version: 2024
! Port assignment regex: !\s*Touchstone port\s*([0-9]+)\s*=\s*(CST MWS port|CST DES external port|CST DES block port)\s*(.+)\s* \(\"(.*)\"\)(\s*mode\s*([0-9]+))?.*
! Touchstone port assignment:
! Touchstone port 1 = CST MWS port 1 ("")
! Touchstone port 2 = CST MWS port 2 ("")
# GHz S MA R 50
0.1                   0.00386642       -173.1246        0.9950277     -0.09169389        0.9950277     -0.09169389      0.004668727       -5.857025
0.1199               0.003842849       -171.7982        0.9950673      -0.1095324        0.9950673      -0.1095324      0.004636714       -6.990274
0.1398               0.003815513       -170.4935         0.995113      -0.1271629        0.9951129      -0.1271629      0.004599689       -8.106587
0.1597                0.00378465       -169.2136        0.9951643      -0.1445618        0.9951642      -0.1445618       0.00455799       -9.203634
0.1796               0.003750504        -167.961        0.9952206      -0.1617091        0.9952206      -0.1617092      0.004511995       -10.27929
0.1995               0.003713327       -166.7381        0.9952813      -0.1785897        0.9952812      -0.1785897      0.004462113       -11.33161
0.2194               0.003673383       -165.5469        0.9953457      -0.1951919        0.9953456      -0.1951919      0.004408756       -12.35884
0.2393               0.003630981        -164.389        0.9954136      -0.2115085        0.9954136      -0.2115085      0.004352303       -13.35962
0.2592               0.003586369        -163.266        0.9954842      -0.2275359        0.9954841      -0.2275358      0.004293187       -14.33258
0.2791               0.003539826       -162.1788        0.9955569      -0.2432738        0.9955568      -0.2432738      0.004231796        -15.2767
0.299                 0.00349162       -161.1283        0.9956312       -0.258725        0.9956312       -0.258725      0.004168509        -16.1912
0.3189               0.003442008        -160.115        0.9957067      -0.2738951        0.9957067      -0.2738951      0.004103686       -17.07542
0.3388               0.003391223       -159.1392        0.9957829      -0.2887919        0.9957828      -0.2887919      0.004037677       -17.92891
0.3587               0.003339517       -158.2011        0.9958596      -0.3034249        0.9958595      -0.3034249      0.003970772       -18.75155
0.3786               0.003287076       -157.3002         0.995936      -0.3178053        0.9959359      -0.3178053      0.003903293       -19.54312
0.3985               0.003234129       -156.4366        0.9960123      -0.3319452        0.9960122      -0.3319452      0.003835468       -20.30385
0.4184                0.00318084       -155.6095        0.9960878      -0.3458575        0.9960878      -0.3458575      0.003767555       -21.03389
0.4383                0.00312736       -154.8183        0.9961624      -0.3595559        0.9961622      -0.3595559      0.003699782       -21.73348
0.4582               0.003073875       -154.0623         0.996236      -0.3730539        0.9962359      -0.3730539      0.003632295       -22.40334
0.4781               0.003020488       -153.3405        0.9963082      -0.3863653         0.996308      -0.3863653      0.003565293       -23.04381
0.498                0.002967345       -152.6523         0.996379      -0.3995036         0.996379      -0.3995036       0.00349889        -23.6557
0.5179               0.002914528       -151.9962        0.9964483       -0.412482        0.9964482       -0.412482      0.003433231       -24.23959
0.5378               0.002862129       -151.3712        0.9965158      -0.4253135        0.9965157      -0.4253136      0.003368417       -24.79626
0.5577               0.002810255       -150.7765        0.9965819      -0.4380103        0.9965818      -0.4380103      0.003304509       -25.32672
0.5776               0.002758948       -150.2106        0.9966461      -0.4505842         0.996646      -0.4505843      0.003241602       -25.83166
0.5975               0.002708279       -149.6725        0.9967086      -0.4630465        0.9967086      -0.4630466       0.00317974       -26.31206
0.6174               0.002658291        -149.161        0.9967693      -0.4754075        0.9967693      -0.4754074      0.003118971       -26.76885
0.6373               0.002609016       -148.6746        0.9968281      -0.4876773         0.996828      -0.4876774      0.003059341       -27.20282
0.6572               0.002560506       -148.2125        0.9968853      -0.4998649        0.9968852      -0.4998649      0.003000849       -27.61515
0.6771               0.002512772       -147.7733        0.9969406      -0.5119791        0.9969405      -0.5119791      0.002943526       -28.00666
0.697                0.002465833       -147.3558        0.9969942      -0.5240278        0.9969941      -0.5240279      0.002887381        -28.3783
0.7169               0.002419714        -146.959        0.9970461      -0.5360184        0.9970459      -0.5360184      0.002832405       -28.73112
0.7368               0.002374425       -146.5816        0.9970964      -0.5479576        0.9970964      -0.5479575      0.002778592       -29.06613
0.7567               0.002329956       -146.2225        0.9971451      -0.5598517         0.997145      -0.5598518       0.00272595       -29.38404
0.7766               0.002286319       -145.8806        0.9971922      -0.5717067        0.9971921      -0.5717068      0.002674456       -29.68593
0.7965               0.002243514       -145.5548        0.9972378      -0.5835276        0.9972377      -0.5835277      0.002624093       -29.97275
0.8164               0.002201538       -145.2442         0.997282      -0.5953192         0.997282      -0.5953191      0.002574843       -30.24538
0.8363                0.00216037       -144.9473        0.9973247      -0.6070862        0.9973247      -0.6070862      0.002526697       -30.50459
0.8562               0.002120008       -144.6634         0.997366      -0.6188324         0.997366      -0.6188324      0.002479629       -30.75126
0.8761                0.00208045       -144.3915         0.997406      -0.6305613         0.997406      -0.6305613      0.002433608       -30.98639
0.896                0.002041682       -144.1307        0.9974448      -0.6422766        0.9974448      -0.6422767      0.002388611       -31.21077
0.9159               0.002003695         -143.88        0.9974824       -0.653981        0.9974824       -0.653981      0.002344609       -31.42532
0.9358               0.001966462       -143.6382        0.9975188      -0.6656773        0.9975188      -0.6656773      0.002301594       -31.63054
0.9557               0.001929972       -143.4046         0.997554      -0.6773681         0.997554      -0.6773681      0.002259534       -31.82735
0.9756               0.001894216       -143.1782        0.9975881      -0.6890556        0.9975881      -0.6890556      0.002218399       -32.01655
0.9955               0.001859189       -142.9586        0.9976214      -0.7007416        0.9976213      -0.7007417      0.002178151       -32.19909
1.0154               0.001824849        -142.744        0.9976534      -0.7124283        0.9976533      -0.7124283      0.002138796       -32.37527
1.0353               0.001791219       -142.5348        0.9976848      -0.7241168        0.9976848      -0.7241168      0.002100267       -32.54639
1.0552               0.001758251       -142.3293        0.9977151       -0.735809        0.9977151      -0.7358091      0.002062575       -32.71266
1.0751               0.001725936       -142.1267        0.9977445      -0.7475061        0.9977444      -0.7475061      0.002025687       -32.87486
1.095                0.001694267       -141.9265        0.9977732      -0.7592092        0.9977731      -0.7592093      0.001989573       -33.03383
1.1149               0.001663227       -141.7278         0.997801      -0.7709194        0.9978009      -0.7709194      0.001954213       -33.19017
1.1348               0.001632807       -141.5302        0.9978282      -0.7826377        0.9978281      -0.7826377      0.001919577       -33.34466
1.1547               0.001602978       -141.3323        0.9978545      -0.7943648        0.9978544      -0.7943649      0.001885659       -33.49769
1.1746               0.001573747       -141.1339        0.9978803      -0.8061014        0.9978803      -0.8061014      0.001852417       -33.65031
1.1945               0.001545079       -140.9339        0.9979053      -0.8178484        0.9979053      -0.8178484      0.001819854       -33.80266
1.2144               0.001516971       -140.7316        0.9979298      -0.8296062        0.9979297      -0.8296063      0.001787939       -33.95558
1.2343               0.001489411       -140.5264        0.9979535      -0.8413753        0.9979535      -0.8413753      0.001756653       -34.10974
1.2542               0.001462379       -140.3174        0.9979767      -0.8531563        0.9979767      -0.8531563      0.001725985       -34.26558
1.2741               0.001435877       -140.1041        0.9979994      -0.8649494        0.9979994      -0.8649495      0.001695905       -34.42396
1.294                0.001409884       -139.8856        0.9980216       -0.876755        0.9980215      -0.8767551      0.001666405       -34.58533
1.3139               0.001384396       -139.6614        0.9980432      -0.8885732        0.9980432      -0.8885732      0.001637465       -34.75034
1.3338               0.001359391       -139.4303        0.9980643      -0.9004046        0.9980643      -0.9004046       0.00160908       -34.91937
1.3537               0.001334865        -139.192        0.9980849      -0.9122493        0.9980848      -0.9122494      0.001581229       -35.09312
1.3736               0.001310823        -138.946        0.9981052      -0.9241073        0.9981052      -0.9241073      0.001553883        -35.2726
1.3935                0.00128724       -138.6911         0.998125      -0.9359788        0.9981249      -0.9359788       0.00152705       -35.45792
1.4134               0.001264109       -138.4266        0.9981444      -0.9478639        0.9981442       -0.947864      0.001500712       -35.64976
1.4333               0.001241431       -138.1522        0.9981634      -0.9597627        0.9981633      -0.9597628      0.001474852       -35.84885
1.4532               0.001219193       -137.8669         0.998182      -0.9716752        0.9981819      -0.9716754      0.001449464       -36.05565
1.4731               0.001197394       -137.5701        0.9982003      -0.9836015        0.9982003      -0.9836014       0.00142453         -36.271
1.493                0.001176016       -137.2606        0.9982182      -0.9955416        0.9982182      -0.9955417      0.001400055       -36.49506
1.5129                0.00115506       -136.9381        0.9982357       -1.007496        0.9982357       -1.007496      0.001376023       -36.72862
1.5328               0.001134528       -136.6019         0.998253       -1.019464        0.9982529       -1.019464      0.001352419       -36.97253
1.5527               0.001114404        -136.251        0.9982699       -1.031445        0.9982698       -1.031445      0.001329245       -37.22704
1.5726               0.001094695        -135.885        0.9982866       -1.043441        0.9982864       -1.043441      0.001306484       -37.49308
1.5925               0.001075396       -135.5032        0.9983029        -1.05545        0.9983029        -1.05545       0.00128413       -37.77131
1.6124               0.001056495       -135.1044         0.998319       -1.067473        0.9983189       -1.067473      0.001262188       -38.06191
1.6323                  0.001038       -134.6883        0.9983348       -1.079509        0.9983348       -1.079509      0.001240641         -38.366
1.6522               0.001019898       -134.2535        0.9983503       -1.091558        0.9983502       -1.091558      0.001219497       -38.68367
1.6721               0.001002203       -133.8003        0.9983656       -1.103621        0.9983655       -1.103622      0.001198734       -39.01625
1.692               0.0009849075       -133.3276        0.9983807       -1.115698        0.9983806       -1.115698      0.001178356       -39.36408
1.7119              0.0009680046       -132.8341        0.9983955       -1.127787        0.9983954       -1.127788      0.001158368       -39.72751
1.7318              0.0009514987       -132.3196          0.99841        -1.13989          0.99841        -1.13989      0.001138762       -40.10739
1.7517              0.0009353934        -131.784        0.9984245        -1.15201        0.9984244        -1.15201      0.001119525        -40.5044
1.7716              0.0009196932       -131.2252        0.9984386       -1.164134        0.9984385       -1.164135      0.001100676       -40.91952
1.7915              0.0009043955       -130.6441        0.9984526       -1.176276        0.9984525       -1.176276      0.001082195       -41.35309
1.8114              0.0008895028       -130.0395        0.9984663        -1.18843        0.9984663        -1.18843      0.001064088       -41.80579
1.8313              0.0008750133       -129.4105        0.9984799       -1.200596        0.9984799       -1.200596      0.001046362       -42.27805
1.8512              0.0008609299       -128.7564        0.9984932       -1.212775        0.9984931       -1.212775      0.001029017       -42.77043
1.8711              0.0008472635       -128.0775        0.9985063       -1.224966        0.9985062       -1.224966      0.001012045       -43.28398
1.891               0.0008340231       -127.3739        0.9985194       -1.237169        0.9985194        -1.23717     0.0009954407       -43.81974
1.9109              0.0008211999        -126.644        0.9985323       -1.249385        0.9985322       -1.249385     0.0009792229       -44.37744
1.9308               0.000808803       -125.8879        0.9985449       -1.261612        0.9985449       -1.261612     0.0009633896       -44.95791
1.9507              0.0007968368       -125.1054        0.9985574       -1.273851        0.9985574       -1.273851     0.0009479432       -45.56175
1.9706              0.0007853062       -124.2964        0.9985696       -1.286102        0.9985696       -1.286102     0.0009328871       -46.18938
1.9905              0.0007742196       -123.4611        0.9985818       -1.298364        0.9985817       -1.298365     0.0009182218       -46.84159
2.0104              0.0007635823       -122.5996        0.9985938       -1.310638        0.9985938       -1.310638      0.000903953        -47.5188
2.0303              0.0007533955       -121.7116        0.9986056       -1.322923        0.9986055       -1.322923      0.000890089       -48.22101
2.0502               0.000743674       -120.7985        0.9986174       -1.335219        0.9986174       -1.335219     0.0008766247       -48.94947
2.0701              0.0007344088       -119.8588        0.9986289       -1.347526        0.9986288       -1.347526     0.0008635846       -49.70307
2.09                0.0007256204       -118.8952        0.9986403       -1.359844        0.9986402       -1.359844     0.0008509531       -50.48351
2.1099              0.0007173079       -117.9075        0.9986516       -1.372172        0.9986515       -1.372172     0.0008387467       -51.29028
2.1298              0.0007094779       -116.8967        0.9986629       -1.384511        0.9986628       -1.384511     0.0008269682       -52.12372
2.1497              0.0007021337       -115.8635        0.9986739       -1.396861        0.9986739       -1.396861     0.0008156272       -52.98348
2.1696              0.0006952741        -114.808        0.9986846       -1.409221        0.9986845       -1.409221       0.00080474       -53.86872
2.1895              0.0006889188       -113.7342        0.9986954       -1.421591        0.9986954       -1.421591     0.0007942887       -54.78141
2.2094              0.0006830558       -112.6406        0.9987059       -1.433971        0.9987058       -1.433971     0.0007843056       -55.71883
2.2293              0.0006777007       -111.5312        0.9987164       -1.446361        0.9987164       -1.446361     0.0007747771        -56.6825
2.2492              0.0006728492       -110.4065        0.9987268       -1.458761        0.9987268       -1.458761     0.0007657192       -57.67089
2.2691              0.0006685028       -109.2679         0.998737       -1.471171        0.9987369       -1.471171     0.0007571404       -58.68315
2.289               0.0006646661       -108.1183        0.9987472        -1.48359        0.9987471        -1.48359     0.0007490418       -59.71904
2.3089              0.0006613357       -106.9588        0.9987571       -1.496019         0.998757       -1.496019     0.0007414338       -60.77696
2.3288              0.0006585134       -105.7918        0.9987669       -1.508456        0.9987668       -1.508457     0.0007343209       -61.85616
2.3487              0.0006561975       -104.6199        0.9987766       -1.520904        0.9987766       -1.520904     0.0007277035       -62.95575
2.3686              0.0006543857        -103.445        0.9987863       -1.533359        0.9987862       -1.533359     0.0007215907       -64.07397
2.3885               0.000653072       -102.2686        0.9987957       -1.545825        0.9987956       -1.545825     0.0007159883       -65.20878
2.4084              0.0006522574       -101.0946        0.9988051       -1.558298        0.9988051       -1.558298     0.0007108909       -66.36023
2.4283              0.0006519332       -99.92408        0.9988145        -1.57078        0.9988144        -1.57078     0.0007063089       -67.52525
2.4482              0.0006520924       -98.75876        0.9988236       -1.583272        0.9988235       -1.583272     0.0007022439       -68.70182
2.4681              0.0006527301       -97.60166        0.9988326       -1.595771        0.9988326       -1.595771     0.0006986935       -69.88874
2.488               0.0006538371       -96.45393        0.9988415       -1.608279        0.9988414       -1.608279     0.0006956611       -71.08328
2.5079              0.0006554072       -95.31951        0.9988504       -1.620794        0.9988504       -1.620794     0.0006931389         -72.285
2.5278              0.0006574282       -94.19767        0.9988591       -1.633318        0.9988591       -1.633318     0.0006911345        -73.4895
2.5477              0.0006598915       -93.09098        0.9988677        -1.64585        0.9988676        -1.64585     0.0006896413        -74.6954
2.5676              0.0006627874       -92.00257        0.9988762       -1.658389        0.9988762       -1.658389     0.0006886517       -75.90185
2.5875              0.0006661037       -90.93137        0.9988845       -1.670936        0.9988844       -1.670936     0.0006881683       -77.10442
2.6074              0.0006698288       -89.88063        0.9988927       -1.683491        0.9988926       -1.683491     0.0006881786       -78.30267
2.6273              0.0006739518       -88.85115        0.9989009       -1.696053        0.9989008       -1.696053     0.0006886788       -79.49417
2.6472              0.0006784606       -87.84364        0.9989088       -1.708623        0.9989087       -1.708623     0.0006896624       -80.67643
2.6671              0.0006833422       -86.85998        0.9989168       -1.721199        0.9989167       -1.721199     0.0006911184       -81.84856
2.687                0.000688583       -85.90075        0.9989248       -1.733783        0.9989247       -1.733783     0.0006930381       -83.00848
2.7069              0.0006941733       -84.96483        0.9989324       -1.746374        0.9989323       -1.746374     0.0006954149       -84.15271
2.7268              0.0007000968       -84.05514        0.9989401       -1.758971          0.99894       -1.758971     0.0006982344       -85.28191
2.7467              0.0007063436       -83.17087        0.9989476       -1.771575        0.9989476       -1.771575     0.0007014886       -86.39342
2.7666              0.0007129016       -82.31154         0.998955       -1.784186        0.9989549       -1.784186     0.0007051646       -87.48509
2.7865              0.0007197558       -81.47912        0.9989623       -1.796804        0.9989622       -1.796804     0.0007092503       -88.55739
2.8064              0.0007268964       -80.67231        0.9989694       -1.809427        0.9989694       -1.809427     0.0007137342       -89.60782
2.8263              0.0007343096       -79.89182        0.9989765       -1.822057        0.9989765       -1.822057     0.0007186022       -90.63628
2.8462              0.0007419835       -79.13758        0.9989836       -1.834693        0.9989835       -1.834693     0.0007238427       -91.64182
2.8661              0.0007499079       -78.40904        0.9989905       -1.847335        0.9989904       -1.847335     0.0007294427       -92.62343
2.886               0.0007580709       -77.70597        0.9989972       -1.859983        0.9989972       -1.859983     0.0007353886       -93.58044
2.9059              0.0007664646       -77.02751        0.9990038       -1.872637        0.9990037       -1.872637     0.0007416678       -94.51188
2.9258              0.0007750699       -76.37523        0.9990105       -1.885296        0.9990104       -1.885297     0.0007482675        -95.4195
2.9457              0.0007838848       -75.74683        0.9990169       -1.897961        0.9990169       -1.897962     0.0007551743       -96.30092
2.9656              0.0007928976       -75.14224        0.9990233       -1.910632        0.9990232       -1.910633     0.0007623756       -97.15641
2.9855              0.0008020929       -74.56211        0.9990296       -1.923308        0.9990295       -1.923309     0.0007698593       -97.98722
3.0054                0.00081147       -74.00427        0.9990357        -1.93599        0.9990356        -1.93599     0.0007776116       -98.79161
3.0253              0.0008210123        -73.4699        0.9990419       -1.948676        0.9990418       -1.948676     0.0007856243       -99.57139
3.0452              0.0008307195       -72.95645        0.9990477       -1.961367        0.9990476       -1.961367     0.0007938797       -100.3247
3.0651              0.0008405724       -72.46562        0.9990537       -1.974064        0.9990536       -1.974064     0.0008023719       -101.0543
3.085               0.0008505722       -71.99508        0.9990595       -1.986765        0.9990594       -1.986765     0.0008110855       -101.7584
3.1049              0.0008607088       -71.54478        0.9990651       -1.999471        0.9990651       -1.999471     0.0008200114       -102.4381
3.1248              0.0008709706       -71.11487        0.9990707       -2.012182        0.9990707       -2.012182     0.0008291409       -103.0944
3.1447              0.0008813617       -70.70296        0.9990761       -2.024897         0.999076       -2.024897     0.0008384586       -103.7261
3.1646              0.0008918616       -70.31061        0.9990815       -2.037616        0.9990815       -2.037616       0.00084796       -104.3356
3.1845              0.0009024747       -69.93562        0.9990867        -2.05034        0.9990866        -2.05034     0.0008576315       -104.9218
3.2044              0.0009131861       -69.57869        0.9990919       -2.063068        0.9990917       -2.063068     0.0008674679       -105.4866
3.2243              0.0009239923       -69.23901         0.999097         -2.0758         0.999097         -2.0758     0.0008774598       -106.0302
3.2442               0.000934893       -68.91501        0.9991019       -2.088537        0.9991018       -2.088537     0.0008875938       -106.5521
3.2641              0.0009458775       -68.60721        0.9991068       -2.101277        0.9991067       -2.101277     0.0008978673       -107.0538
3.284               0.0009569383       -68.31527        0.9991117        -2.11402        0.9991116        -2.11402     0.0009082729       -107.5362
3.3039              0.0009680825       -68.03696        0.9991162       -2.126769        0.9991161       -2.126769     0.0009187947        -107.998
3.3238              0.0009792923       -67.77378        0.9991209       -2.139519        0.9991207       -2.139519     0.0009294363       -108.4419
3.3437               0.000990564       -67.52468        0.9991254       -2.152274        0.9991253       -2.152275     0.0009401856       -108.8679
3.3636                 0.0010019       -67.28868        0.9991298       -2.165033        0.9991298       -2.165033     0.0009510361       -109.2758
3.3835               0.001013292       -67.06581        0.9991342       -2.177794        0.9991342       -2.177794     0.0009619841       -109.6669
3.4034               0.001024744       -66.85456        0.9991383       -2.190559        0.9991382       -2.190559     0.0009730154       -110.0404
3.4233               0.001036242       -66.65578        0.9991424       -2.203327        0.9991423       -2.203327     0.0009841337       -110.3984
3.4432               0.001047783       -66.46872        0.9991464       -2.216098        0.9991463       -2.216099     0.0009953296       -110.7409
3.4631                0.00105937       -66.29268        0.9991503       -2.228873        0.9991503       -2.228873      0.001006598       -111.0683
3.483                0.001070997       -66.12721        0.9991541       -2.241649         0.999154        -2.24165      0.001017932       -111.3808
3.5029               0.001082657       -65.97245        0.9991579       -2.254429        0.9991578       -2.254429       0.00102933       -111.6795
3.5228               0.001094349       -65.82794        0.9991616       -2.267211        0.9991615       -2.267212       0.00104079       -111.9649
3.5427               0.001106077       -65.69237         0.999165       -2.279997        0.9991649       -2.279997      0.001052298       -112.2363
3.5626               0.001117824       -65.56704        0.9991686       -2.292784        0.9991686       -2.292784      0.001063862        -112.496
3.5825               0.001129604       -65.44976        0.9991719       -2.305574        0.9991718       -2.305574      0.001075464       -112.7424
3.6024                 0.0011414       -65.34178        0.9991752       -2.318367        0.9991751       -2.318367      0.001087113       -112.9777
3.6223               0.001153213       -65.24225        0.9991785       -2.331161        0.9991785       -2.331161      0.001098802       -113.2017
3.6422               0.001165049        -65.1504        0.9991816       -2.343958        0.9991816       -2.343958      0.001110522       -113.4141
3.6621               0.001176901       -65.06599        0.9991845       -2.356757        0.9991844       -2.356757      0.001122271       -113.6157
3.682                0.001188761       -64.98955        0.9991874       -2.369558        0.9991874       -2.369559      0.001134052       -113.8075
3.7019               0.001200639       -64.91978        0.9991902       -2.382361        0.9991901       -2.382361      0.001145854       -113.9887
3.7218               0.001212521       -64.85727        0.9991929       -2.395166        0.9991929       -2.395166       0.00115768       -114.1607
3.7417                0.00122441       -64.80132        0.9991955       -2.407973        0.9991955       -2.407973      0.001169525       -114.3233
3.7616               0.001236305       -64.75185        0.9991982       -2.420781        0.9991981       -2.420781      0.001181387       -114.4771
3.7815               0.001248205       -64.70843        0.9992006       -2.433591        0.9992005       -2.433591      0.001193263       -114.6221
3.8014               0.001260103        -64.6712         0.999203       -2.446403         0.999203       -2.446403      0.001205153       -114.7592
3.8213                  0.001272       -64.63988        0.9992054       -2.459215        0.9992054       -2.459215      0.001217053       -114.8883
3.8412                 0.0012839       -64.61356        0.9992075        -2.47203        0.9992075        -2.47203      0.001228955       -115.0092
3.8611               0.001295795       -64.59288        0.9992097       -2.484846        0.9992096       -2.484846      0.001240867       -115.1229
3.881                0.001307685       -64.57717        0.9992117       -2.497663        0.9992117       -2.497663      0.001252779       -115.2294
3.9009               0.001319571       -64.56646        0.9992137       -2.510481        0.9992137       -2.510481      0.001264693        -115.329
3.9208                0.00133145       -64.56034        0.9992156         -2.5233        0.9992155         -2.5233      0.001276606       -115.4217
3.9407               0.001343317       -64.55909        0.9992174       -2.536121        0.9992174       -2.536121      0.001288518       -115.5084
3.9606               0.001355182       -64.56166        0.9992191       -2.548942         0.999219       -2.548942      0.001300421       -115.5881
3.9805                0.00136703        -64.5689        0.9992207       -2.561764        0.9992207       -2.561765      0.001312322       -115.6624
4.0004               0.001378868       -64.58024        0.9992223       -2.574587        0.9992222       -2.574587      0.001324217       -115.7309